\ Initial Configuration - Tsai-Wei Lin

# Seed = 387279973

1806 atoms
1743 bonds
1680 angles
0 dihedrals
0 impropers
6 atom types
4 bond types
4 angle types
-6.420781 6.420781 xlo xhi
-6.420781 6.420781 ylo yhi
-6.420781 6.420781 zlo zhi

Masses

1 1.000000
2 1.000000
3 1.000000
4 1.000000
5 1.000000
6 1.000000

Atoms	# atom-ID mol-ID atom-type q x y z

1	 1	 1	 0.000000	 0.874860	 -4.171470	 5.527248
2	 1	 1	 0.000000	 0.620616	 -4.927364	 -6.287677
3	 1	 2	 0.000000	 0.269456	 -3.694707	 -6.070323
4	 1	 1	 0.000000	 1.083161	 -3.288722	 -5.141313
5	 1	 2	 0.000000	 2.228377	 -3.534403	 -5.705335
6	 1	 1	 0.000000	 1.207879	 -2.796987	 -6.029063
7	 1	 1	 0.000000	 1.117966	 -2.293970	 5.617137
8	 1	 1	 0.000000	 -0.134349	 -1.949398	 5.562579
9	 1	 1	 0.000000	 0.943507	 -1.223022	 5.538008
10	 1	 1	 0.000000	 -0.143657	 -0.636004	 5.133679
11	 1	 1	 0.000000	 1.015531	 -0.756737	 4.557740
12	 1	 1	 0.000000	 1.013179	 -1.931706	 4.001463
13	 1	 2	 0.000000	 0.014963	 -1.135382	 4.245253
14	 1	 1	 0.000000	 -0.236190	 -2.222085	 3.577421
15	 1	 1	 0.000000	 -0.431800	 -1.522793	 2.499123
16	 1	 1	 0.000000	 -1.399300	 -1.922935	 3.269726
17	 1	 1	 0.000000	 -1.674952	 -3.099048	 3.750115
18	 1	 2	 0.000000	 -0.922022	 -3.380653	 4.771779
19	 1	 1	 0.000000	 -0.768012	 -4.605038	 5.180634
20	 1	 1	 0.000000	 -1.232510	 -4.503300	 3.970720
21	 1	 1	 0.000000	 -0.345919	 -5.450185	 4.056549
22	 1	 1	 0.000000	 -1.242060	 -6.110838	 3.385378
23	 1	 1	 0.000000	 -0.944613	 -5.402180	 2.336889
24	 1	 1	 0.000000	 0.165276	 -4.853767	 1.940166
25	 1	 2	 0.000000	 -0.262425	 -3.720396	 2.411910
26	 1	 1	 0.000000	 0.525438	 -4.451431	 3.143251
27	 1	 2	 0.000000	 1.243587	 -4.096818	 4.167220
28	 1	 1	 0.000000	 2.104199	 -3.259453	 3.669057
29	 1	 1	 0.000000	 2.279488	 -2.655707	 4.806935
30	 1	 1	 0.000000	 3.258593	 -3.427041	 5.176256
31	 2	 1	 0.000000	 2.584568	 1.478018	 3.776103
32	 2	 1	 0.000000	 3.695409	 0.805644	 3.713289
33	 2	 1	 0.000000	 3.084793	 -0.173773	 3.115051
34	 2	 1	 0.000000	 1.889392	 -0.645488	 3.311269
35	 2	 1	 0.000000	 1.462587	 -1.480405	 2.410852
36	 2	 1	 0.000000	 0.385832	 -0.928278	 1.935715
37	 2	 1	 0.000000	 0.671637	 -2.150895	 1.598783
38	 2	 1	 0.000000	 1.575341	 -3.078616	 1.711272
39	 2	 1	 0.000000	 2.251994	 -3.927533	 0.996094
40	 2	 1	 0.000000	 2.310662	 -2.629996	 0.941730
41	 2	 1	 0.000000	 1.621262	 -1.532293	 0.842858
42	 2	 1	 0.000000	 2.458531	 -1.555825	 1.837055
43	 2	 1	 0.000000	 3.469491	 -0.765506	 2.045274
44	 2	 2	 0.000000	 4.219747	 -0.001263	 1.308355
45	 2	 1	 0.000000	 4.579352	 -1.202447	 0.965074
46	 2	 2	 0.000000	 3.295547	 -1.237297	 1.166640
47	 2	 1	 0.000000	 3.754827	 -2.407498	 0.835444
48	 2	 2	 0.000000	 4.308488	 -2.887280	 1.909347
49	 2	 2	 0.000000	 3.702398	 -3.392349	 2.942575
50	 2	 1	 0.000000	 3.485663	 -2.125933	 3.140605
51	 2	 1	 0.000000	 3.155660	 -2.424161	 1.919066
52	 2	 1	 0.000000	 2.484496	 -3.291040	 2.617678
53	 2	 2	 0.000000	 3.280494	 -4.018290	 1.891390
54	 2	 1	 0.000000	 2.402195	 -4.936709	 1.617353
55	 2	 1	 0.000000	 2.038181	 -5.667657	 2.628892
56	 2	 1	 0.000000	 2.753987	 6.093188	 2.727235
57	 2	 1	 0.000000	 2.173220	 4.931263	 2.675860
58	 2	 2	 0.000000	 2.273277	 5.349408	 1.449017
59	 2	 1	 0.000000	 3.370187	 5.817206	 0.931375
60	 2	 1	 0.000000	 3.369447	 4.563607	 0.587151
61	 3	 1	 0.000000	 -1.016103	 1.644417	 2.737308
62	 3	 1	 0.000000	 -1.033293	 2.140682	 1.535881
63	 3	 1	 0.000000	 -2.216892	 1.608416	 1.459813
64	 3	 1	 0.000000	 -2.099585	 0.322449	 1.609907
65	 3	 1	 0.000000	 -1.569533	 -0.722321	 2.173379
66	 3	 1	 0.000000	 -0.562956	 -1.417091	 1.732815
67	 3	 1	 0.000000	 -1.122648	 -2.556194	 2.014216
68	 3	 2	 0.000000	 0.129637	 -2.320201	 1.757138
69	 3	 1	 0.000000	 0.891443	 -1.280560	 1.926838
70	 3	 2	 0.000000	 0.466854	 -0.824151	 3.067634
71	 3	 1	 0.000000	 1.692057	 -1.258069	 3.043274
72	 3	 2	 0.000000	 2.835795	 -0.640811	 3.014001
73	 3	 1	 0.000000	 3.342359	 -1.753018	 3.457158
74	 3	 1	 0.000000	 2.949843	 -1.852795	 2.221854
75	 3	 1	 0.000000	 3.687865	 -2.911372	 2.064568
76	 3	 1	 0.000000	 3.285702	 -2.364987	 0.955636
77	 3	 1	 0.000000	 2.266634	 -1.580892	 1.147196
78	 3	 1	 0.000000	 2.027186	 -2.846492	 0.971351
79	 3	 1	 0.000000	 1.347409	 -2.523568	 2.031361
80	 3	 1	 0.000000	 0.651301	 -2.237028	 3.091233
81	 3	 1	 0.000000	 -0.535458	 -1.730328	 3.248897
82	 3	 1	 0.000000	 -1.795117	 -1.476968	 3.446553
83	 3	 1	 0.000000	 -1.717639	 -2.742197	 3.158121
84	 3	 2	 0.000000	 -1.950794	 -3.727814	 2.343138
85	 3	 2	 0.000000	 -1.842138	 -4.227695	 3.538258
86	 3	 1	 0.000000	 -2.825981	 -4.211934	 4.387849
87	 3	 1	 0.000000	 -2.710108	 -5.013340	 3.370833
88	 3	 2	 0.000000	 -1.776219	 -5.881901	 3.118933
89	 3	 1	 0.000000	 -2.045668	 6.248720	 2.064438
90	 3	 1	 0.000000	 -3.237667	 6.358724	 2.571427
91	 4	 1	 0.000000	 1.414184	 -4.324045	 -2.713974
92	 4	 1	 0.000000	 2.400269	 -3.491689	 -2.556425
93	 4	 2	 0.000000	 1.728897	 -4.100752	 -1.624597
94	 4	 1	 0.000000	 1.123408	 -4.945064	 -0.843240
95	 4	 2	 0.000000	 1.515831	 -6.164123	 -1.066623
96	 4	 2	 0.000000	 2.652035	 6.380957	 -0.508826
97	 4	 1	 0.000000	 3.011502	 5.153455	 -0.276400
98	 4	 1	 0.000000	 2.419177	 4.000706	 -0.174812
99	 4	 1	 0.000000	 2.811938	 3.747293	 -1.387875
100	 4	 2	 0.000000	 2.769957	 4.627197	 -2.343912
101	 4	 1	 0.000000	 2.940306	 5.691420	 -3.070831
102	 4	 1	 0.000000	 2.835109	 -5.927627	 -2.641426
103	 4	 1	 0.000000	 1.675607	 -5.790563	 -2.069789
104	 4	 1	 0.000000	 1.303456	 -5.626074	 -3.304474
105	 4	 1	 0.000000	 1.274642	 5.938608	 -3.546852
106	 4	 1	 0.000000	 1.696041	 4.782256	 -3.128195
107	 4	 1	 0.000000	 2.654322	 4.416404	 -3.926850
108	 4	 2	 0.000000	 2.298271	 3.245501	 -3.488429
109	 4	 1	 0.000000	 2.030501	 3.384958	 -4.752886
110	 4	 1	 0.000000	 1.187586	 3.094265	 -5.698926
111	 4	 1	 0.000000	 0.520098	 3.498598	 -4.659226
112	 4	 1	 0.000000	 -0.123387	 3.653945	 -3.540390
113	 4	 1	 0.000000	 -0.125330	 2.362838	 -3.692176
114	 4	 1	 0.000000	 -0.469308	 2.275775	 -4.942815
115	 4	 2	 0.000000	 -0.635859	 1.358466	 -5.848799
116	 4	 1	 0.000000	 0.433761	 2.075935	 -5.672298
117	 4	 1	 0.000000	 1.484828	 2.056386	 -4.907526
118	 4	 1	 0.000000	 2.756721	 2.087568	 -5.174577
119	 4	 1	 0.000000	 2.642603	 1.408227	 -6.277062
120	 4	 1	 0.000000	 1.718012	 0.864496	 -5.542563
121	 5	 1	 0.000000	 -6.402681	 -1.322947	 2.892338
122	 5	 1	 0.000000	 5.723768	 -1.102822	 3.955427
123	 5	 2	 0.000000	 5.718040	 0.009539	 4.628198
124	 5	 1	 0.000000	 -6.034419	 0.633830	 4.290389
125	 5	 1	 0.000000	 -6.392778	 0.044461	 5.392307
126	 5	 1	 0.000000	 -5.255883	 -0.177056	 5.982560
127	 5	 2	 0.000000	 -5.833678	 0.674576	 -6.064725
128	 5	 1	 0.000000	 5.834709	 1.020457	 6.336355
129	 5	 1	 0.000000	 5.242600	 2.168758	 6.192085
130	 5	 1	 0.000000	 4.351734	 2.394970	 -5.730138
131	 5	 1	 0.000000	 3.893817	 2.855779	 -4.604097
132	 5	 1	 0.000000	 3.510126	 1.730154	 -5.129216
133	 5	 1	 0.000000	 2.695520	 0.735125	 -5.319832
134	 5	 2	 0.000000	 3.275661	 1.007736	 -4.188850
135	 5	 1	 0.000000	 2.654719	 0.142758	 -3.443032
136	 5	 1	 0.000000	 2.772237	 -1.115996	 -3.745895
137	 5	 1	 0.000000	 3.866971	 -0.462473	 -3.999792
138	 5	 1	 0.000000	 4.107692	 0.472488	 -3.129216
139	 5	 1	 0.000000	 3.717054	 -0.128064	 -2.044441
140	 5	 1	 0.000000	 2.444182	 -0.353941	 -1.907408
141	 5	 1	 0.000000	 2.849877	 0.097082	 -0.757629
142	 5	 1	 0.000000	 3.972442	 -0.509647	 -1.006080
143	 5	 1	 0.000000	 5.056373	 -0.416459	 -1.717705
144	 5	 2	 0.000000	 5.394092	 0.488028	 -2.588249
145	 5	 1	 0.000000	 4.967447	 0.987735	 -3.709974
146	 5	 2	 0.000000	 4.882576	 0.203583	 -4.743368
147	 5	 1	 0.000000	 5.451898	 -0.393699	 -3.738814
148	 5	 2	 0.000000	 6.069549	 -1.188054	 -4.561923
149	 5	 1	 0.000000	 5.806093	 -2.461022	 -4.573839
150	 5	 1	 0.000000	 -6.316952	 -2.304953	 -5.645928
151	 6	 1	 0.000000	 2.424538	 -2.763153	 1.423885
152	 6	 2	 0.000000	 2.042491	 -2.265326	 2.562396
153	 6	 1	 0.000000	 3.254881	 -2.560278	 2.197548
154	 6	 1	 0.000000	 4.466748	 -2.336207	 2.611277
155	 6	 2	 0.000000	 4.604711	 -1.174999	 2.043330
156	 6	 1	 0.000000	 3.510814	 -0.591778	 1.651869
157	 6	 1	 0.000000	 2.601614	 -1.513781	 1.767047
158	 6	 1	 0.000000	 1.841503	 -1.899765	 0.785595
159	 6	 1	 0.000000	 2.440578	 -2.950286	 0.308613
160	 6	 1	 0.000000	 2.025730	 -3.847644	 1.152799
161	 6	 2	 0.000000	 2.203993	 -4.854918	 0.350539
162	 6	 1	 0.000000	 2.624007	 -5.500196	 -0.696937
163	 6	 1	 0.000000	 2.167857	 -4.773363	 -1.673483
164	 6	 1	 0.000000	 2.919147	 -5.568911	 -2.375385
165	 6	 2	 0.000000	 4.162942	 -5.382299	 -2.704246
166	 6	 1	 0.000000	 3.929275	 -4.228366	 -3.255463
167	 6	 1	 0.000000	 5.075629	 -4.832763	 -3.152616
168	 6	 1	 0.000000	 4.462413	 -5.219190	 -4.231801
169	 6	 2	 0.000000	 3.573516	 -6.060181	 -3.792943
170	 6	 1	 0.000000	 2.353715	 -5.788834	 -3.434535
171	 6	 1	 0.000000	 1.109842	 -6.049903	 -3.161364
172	 6	 1	 0.000000	 0.623976	 -5.077124	 -3.873849
173	 6	 1	 0.000000	 -0.673677	 -5.139945	 -3.920205
174	 6	 1	 0.000000	 -1.104219	 -5.208877	 -5.144902
175	 6	 2	 0.000000	 -0.307051	 -4.204476	 -5.358679
176	 6	 1	 0.000000	 -0.153715	 -5.435548	 -5.747201
177	 6	 1	 0.000000	 0.771086	 -4.560732	 -6.010718
178	 6	 1	 0.000000	 1.169097	 -5.778307	 -5.789133
179	 6	 1	 0.000000	 2.206761	 -5.555461	 6.301700
180	 6	 1	 0.000000	 3.393021	 -5.312932	 5.828449
181	 7	 1	 0.000000	 3.049816	 3.841440	 0.168498
182	 7	 1	 0.000000	 2.984119	 3.570518	 -1.101260
183	 7	 1	 0.000000	 3.318762	 4.759257	 -0.695164
184	 7	 2	 0.000000	 2.637978	 4.895172	 -1.794282
185	 7	 1	 0.000000	 3.910197	 4.835773	 -2.054915
186	 7	 1	 0.000000	 4.478685	 3.913664	 -1.336209
187	 7	 1	 0.000000	 3.809149	 3.401860	 -2.326047
188	 7	 1	 0.000000	 3.537774	 2.682709	 -3.374463
189	 7	 1	 0.000000	 2.935341	 3.396855	 -4.278382
190	 7	 1	 0.000000	 1.888499	 2.627701	 -4.228130
191	 7	 2	 0.000000	 0.800300	 3.331963	 -4.128944
192	 7	 1	 0.000000	 0.853009	 4.602061	 -3.856779
193	 7	 1	 0.000000	 0.144179	 4.005832	 -2.944600
194	 7	 2	 0.000000	 -0.574733	 4.139455	 -1.869746
195	 7	 1	 0.000000	 -1.357111	 4.559322	 -0.920222
196	 7	 1	 0.000000	 -2.502857	 4.451787	 -0.315488
197	 7	 1	 0.000000	 -1.553202	 4.756848	 0.518236
198	 7	 2	 0.000000	 -2.338794	 5.710450	 0.922572
199	 7	 1	 0.000000	 -3.089016	 4.767408	 0.434885
200	 7	 1	 0.000000	 -2.912323	 5.749737	 -0.398068
201	 7	 1	 0.000000	 -3.701856	 -6.264026	 0.219496
202	 7	 1	 0.000000	 -4.428367	 -6.135195	 -0.850824
203	 7	 1	 0.000000	 -4.035197	 -5.012051	 -0.327406
204	 7	 1	 0.000000	 -3.154049	 -5.888593	 -0.708526
205	 7	 1	 0.000000	 -3.081235	 -5.084424	 -1.727354
206	 7	 1	 0.000000	 -2.869382	 -4.975119	 -3.005310
207	 7	 2	 0.000000	 -2.023665	 -5.919647	 -3.292762
208	 7	 2	 0.000000	 -0.724631	 -5.949106	 -3.252225
209	 7	 1	 0.000000	 -0.057579	 -5.014018	 -2.643414
210	 7	 1	 0.000000	 -1.004750	 -4.438530	 -1.963943
211	 8	 1	 0.000000	 -6.400367	 0.453425	 -2.065013
212	 8	 1	 0.000000	 5.159023	 0.272769	 -2.180762
213	 8	 1	 0.000000	 5.470537	 -0.110869	 -3.383168
214	 8	 2	 0.000000	 5.656661	 -1.379341	 -3.167909
215	 8	 1	 0.000000	 5.156426	 -1.370444	 -4.367778
216	 8	 1	 0.000000	 6.222917	 -0.696560	 -4.053968
217	 8	 1	 0.000000	 5.708598	 -0.496587	 -5.231035
218	 8	 1	 0.000000	 -6.085176	 -0.170114	 -5.927852
219	 8	 1	 0.000000	 -5.434322	 -1.286600	 -6.068739
220	 8	 1	 0.000000	 6.124231	 -1.383923	 -5.883226
221	 8	 1	 0.000000	 5.690257	 -1.076987	 5.771973
222	 8	 1	 0.000000	 4.600247	 -1.701283	 5.437112
223	 8	 2	 0.000000	 4.555392	 -0.635235	 4.694461
224	 8	 1	 0.000000	 4.542166	 -0.363689	 5.965716
225	 8	 1	 0.000000	 3.397227	 -0.331535	 -6.260963
226	 8	 1	 0.000000	 3.527226	 -0.930074	 -5.114293
227	 8	 2	 0.000000	 2.307080	 -0.579984	 -5.394796
228	 8	 1	 0.000000	 1.044463	 -0.416985	 -5.131684
229	 8	 2	 0.000000	 0.409864	 -0.521082	 -6.261484
230	 8	 2	 0.000000	 -0.686404	 -1.151246	 -5.959675
231	 8	 1	 0.000000	 -1.853291	 -1.724232	 -5.951820
232	 8	 2	 0.000000	 -0.786491	 -1.907159	 -5.231768
233	 8	 1	 0.000000	 -0.576286	 -3.038639	 -5.836390
234	 8	 1	 0.000000	 -1.434024	 -4.014880	 -5.871599
235	 8	 1	 0.000000	 -1.770452	 -3.193622	 6.020042
236	 8	 1	 0.000000	 -2.677119	 -4.119552	 5.917044
237	 8	 1	 0.000000	 -1.892182	 -4.925789	 5.266002
238	 8	 1	 0.000000	 -2.363830	 -3.936914	 4.566234
239	 8	 1	 0.000000	 -2.998826	 -3.225102	 5.449469
240	 8	 1	 0.000000	 -3.187167	 -2.065555	 6.006225
241	 9	 1	 0.000000	 -0.215602	 3.328546	 3.291642
242	 9	 1	 0.000000	 0.120460	 4.556243	 3.555881
243	 9	 1	 0.000000	 0.596422	 4.067200	 2.449401
244	 9	 1	 0.000000	 1.574268	 3.440675	 1.865207
245	 9	 2	 0.000000	 1.583526	 2.929508	 3.060457
246	 9	 1	 0.000000	 2.618478	 3.360431	 2.402293
247	 9	 2	 0.000000	 2.905665	 2.226830	 1.834425
248	 9	 2	 0.000000	 3.647264	 2.030672	 0.784876
249	 9	 2	 0.000000	 3.879792	 1.359862	 -0.304135
250	 9	 1	 0.000000	 3.067438	 0.431506	 -0.714303
251	 9	 1	 0.000000	 2.695864	 -0.420204	 0.194830
252	 9	 1	 0.000000	 1.406739	 -0.468843	 0.034233
253	 9	 1	 0.000000	 0.200128	 -0.621660	 0.493293
254	 9	 1	 0.000000	 -0.043723	 0.162849	 -0.514220
255	 9	 1	 0.000000	 -1.143693	 0.734535	 -0.122759
256	 9	 1	 0.000000	 -0.288471	 1.539722	 -0.679777
257	 9	 2	 0.000000	 0.669562	 0.977061	 -0.004806
258	 9	 1	 0.000000	 0.861542	 2.224307	 0.307480
259	 9	 1	 0.000000	 0.538793	 3.266431	 1.014452
260	 9	 1	 0.000000	 -0.365430	 3.287347	 1.948231
261	 9	 1	 0.000000	 -1.513982	 3.350606	 1.342570
262	 9	 1	 0.000000	 -1.129881	 2.149449	 1.026836
263	 9	 1	 0.000000	 -1.447817	 2.490778	 2.240266
264	 9	 2	 0.000000	 -0.849155	 1.816257	 3.176548
265	 9	 1	 0.000000	 -0.059911	 1.183116	 2.360321
266	 9	 1	 0.000000	 0.947137	 1.961583	 2.096044
267	 9	 1	 0.000000	 -0.311423	 2.078060	 1.791973
268	 9	 1	 0.000000	 0.210812	 2.251354	 2.969784
269	 9	 1	 0.000000	 0.149861	 2.256977	 4.268342
270	 9	 1	 0.000000	 -0.476152	 2.086978	 5.394933
271	 10	 1	 0.000000	 3.275422	 -3.986144	 5.073469
272	 10	 1	 0.000000	 3.122434	 -2.759303	 4.671652
273	 10	 1	 0.000000	 2.249446	 -2.043910	 4.026590
274	 10	 1	 0.000000	 1.160375	 -1.334991	 4.063411
275	 10	 1	 0.000000	 0.942801	 -2.499859	 3.528862
276	 10	 1	 0.000000	 0.683149	 -3.484771	 4.336655
277	 10	 2	 0.000000	 1.625087	 -3.300751	 5.213519
278	 10	 1	 0.000000	 1.757835	 -4.510327	 4.756021
279	 10	 2	 0.000000	 1.979757	 -5.103926	 5.891094
280	 10	 1	 0.000000	 2.630050	 -6.227741	 5.955576
281	 10	 1	 0.000000	 2.559853	 5.355828	 6.275772
282	 10	 1	 0.000000	 1.380839	 5.826006	 -6.284976
283	 10	 1	 0.000000	 0.494848	 4.876756	 -6.347785
284	 10	 1	 0.000000	 -0.104724	 5.009913	 5.348010
285	 10	 1	 0.000000	 0.573894	 5.568459	 4.390146
286	 10	 1	 0.000000	 -0.049463	 -6.301021	 4.987208
287	 10	 1	 0.000000	 -0.091217	 -5.019400	 4.773422
288	 10	 2	 0.000000	 0.247974	 -5.610833	 5.880290
289	 10	 1	 0.000000	 -0.090477	 -4.660749	 -6.141034
290	 10	 1	 0.000000	 -0.117831	 -3.522097	 6.073853
291	 10	 2	 0.000000	 -0.634213	 -3.406532	 4.886421
292	 10	 1	 0.000000	 -1.774621	 -2.793247	 4.770877
293	 10	 1	 0.000000	 -2.557144	 -2.447509	 5.749715
294	 10	 1	 0.000000	 -3.739439	 -2.197783	 5.270325
295	 10	 1	 0.000000	 -3.687110	 -0.985918	 5.737919
296	 10	 1	 0.000000	 -2.616519	 -0.803464	 -6.389119
297	 10	 2	 0.000000	 -3.384306	 -1.169791	 -5.406109
298	 10	 1	 0.000000	 -2.860094	 -2.317538	 -5.718965
299	 10	 2	 0.000000	 -3.901924	 -2.913660	 -5.219737
300	 10	 1	 0.000000	 -5.199659	 -2.849492	 -5.261745
301	 11	 1	 0.000000	 2.650790	 0.081987	 2.451963
302	 11	 1	 0.000000	 3.231396	 1.160159	 2.888359
303	 11	 2	 0.000000	 3.340068	 2.253655	 2.193767
304	 11	 2	 0.000000	 4.530380	 2.107866	 2.695667
305	 11	 1	 0.000000	 5.044483	 2.469436	 1.557701
306	 11	 2	 0.000000	 5.312700	 1.326289	 2.115621
307	 11	 1	 0.000000	 5.100095	 0.175142	 2.681005
308	 11	 2	 0.000000	 3.848765	 -0.176295	 2.655176
309	 11	 2	 0.000000	 3.791872	 -1.301542	 3.303699
310	 11	 1	 0.000000	 3.804875	 -2.047771	 2.239286
311	 11	 1	 0.000000	 3.242743	 -1.257263	 1.373779
312	 11	 1	 0.000000	 2.035875	 -1.047624	 1.809119
313	 11	 1	 0.000000	 2.239184	 -2.308189	 2.053334
314	 11	 1	 0.000000	 2.118386	 -3.586532	 2.256426
315	 11	 1	 0.000000	 1.201862	 -4.356670	 1.749602
316	 11	 1	 0.000000	 0.443386	 -3.839636	 2.670140
317	 11	 1	 0.000000	 -0.042103	 -2.851704	 1.978554
318	 11	 1	 0.000000	 1.127641	 -2.704803	 2.526384
319	 11	 1	 0.000000	 1.096644	 -2.023455	 1.419675
320	 11	 1	 0.000000	 1.559378	 -3.196157	 1.102426
321	 11	 2	 0.000000	 1.937390	 -2.039094	 0.646014
322	 11	 1	 0.000000	 2.385028	 -2.075226	 -0.573951
323	 11	 1	 0.000000	 1.530047	 -1.566919	 -1.410988
324	 11	 1	 0.000000	 1.225981	 -2.422014	 -2.341771
325	 11	 1	 0.000000	 0.162657	 -3.166279	 -2.415326
326	 11	 1	 0.000000	 0.883615	 -4.226511	 -2.200554
327	 11	 1	 0.000000	 0.869995	 -4.671939	 -0.979322
328	 11	 1	 0.000000	 1.101406	 -3.397148	 -1.085895
329	 11	 1	 0.000000	 0.100003	 -2.834933	 -0.476710
330	 11	 1	 0.000000	 -1.132938	 -3.246794	 -0.461657
331	 12	 1	 0.000000	 2.033277	 2.685278	 5.372436
332	 12	 1	 0.000000	 2.634083	 1.536495	 5.275845
333	 12	 1	 0.000000	 1.533928	 1.135054	 5.840205
334	 12	 1	 0.000000	 0.692273	 0.361143	 -6.382746
335	 12	 2	 0.000000	 1.359413	 1.052539	 -5.507021
336	 12	 1	 0.000000	 2.363330	 1.656571	 -6.070313
337	 12	 1	 0.000000	 1.383198	 2.478438	 -6.302421
338	 12	 2	 0.000000	 0.118124	 2.765773	 -6.386251
339	 12	 1	 0.000000	 0.739043	 2.105396	 5.523452
340	 12	 1	 0.000000	 0.552371	 3.303350	 5.054347
341	 12	 1	 0.000000	 -0.491443	 2.687486	 5.524627
342	 12	 1	 0.000000	 -0.041903	 1.467897	 5.547353
343	 12	 2	 0.000000	 -0.670954	 1.478197	 -6.156585
344	 12	 1	 0.000000	 -1.818068	 1.900752	 6.242736
345	 12	 1	 0.000000	 -1.556447	 1.158034	 5.208365
346	 12	 1	 0.000000	 -2.434743	 0.429626	 5.831275
347	 12	 1	 0.000000	 -3.546024	 -0.243376	 5.877353
348	 12	 1	 0.000000	 -2.896004	 -0.170182	 -5.840770
349	 12	 1	 0.000000	 -4.067037	 0.144201	 -5.371894
350	 12	 2	 0.000000	 -3.437512	 0.865576	 -4.492511
351	 12	 1	 0.000000	 -4.550273	 0.838045	 -3.820942
352	 12	 1	 0.000000	 -4.748813	 1.449063	 -2.690792
353	 12	 1	 0.000000	 -5.599969	 2.387855	 -2.400615
354	 12	 2	 0.000000	 -4.310563	 2.399479	 -2.565828
355	 12	 2	 0.000000	 -5.078202	 2.892735	 -1.639854
356	 12	 1	 0.000000	 -4.214556	 2.281095	 -0.884861
357	 12	 1	 0.000000	 -3.117118	 2.899945	 -0.564463
358	 12	 1	 0.000000	 -2.011871	 3.374891	 -0.071660
359	 12	 1	 0.000000	 -2.041540	 2.124642	 -0.426622
360	 12	 1	 0.000000	 -0.968343	 2.471550	 0.219833
361	 13	 1	 0.000000	 2.830360	 -2.520977	 -6.415500
362	 13	 1	 0.000000	 1.950377	 -3.185656	 5.737709
363	 13	 1	 0.000000	 0.890052	 -2.856657	 6.414074
364	 13	 1	 0.000000	 0.163205	 -1.871624	 5.976579
365	 13	 1	 0.000000	 1.406395	 -1.914798	 5.598935
366	 13	 1	 0.000000	 0.680927	 -1.787985	 4.527667
367	 13	 1	 0.000000	 0.762400	 -0.728238	 3.779136
368	 13	 1	 0.000000	 1.200232	 -0.882059	 2.564788
369	 13	 2	 0.000000	 1.772700	 -0.422770	 3.637790
370	 13	 2	 0.000000	 2.324957	 -0.539549	 2.466733
371	 13	 2	 0.000000	 2.821947	 -1.157813	 1.436806
372	 13	 1	 0.000000	 2.720084	 0.109338	 1.164863
373	 13	 1	 0.000000	 1.551773	 0.154393	 1.733213
374	 13	 2	 0.000000	 1.312991	 -0.176631	 0.498950
375	 13	 1	 0.000000	 2.132089	 0.787061	 0.198325
376	 13	 2	 0.000000	 2.568827	 1.682115	 -0.637222
377	 13	 1	 0.000000	 3.168547	 0.653957	 -0.114513
378	 13	 1	 0.000000	 4.074226	 1.556030	 0.122150
379	 13	 2	 0.000000	 4.971358	 2.442795	 -0.192179
380	 13	 1	 0.000000	 5.470724	 2.271772	 0.995838
381	 13	 1	 0.000000	 4.285115	 2.030607	 1.471411
382	 13	 1	 0.000000	 3.965820	 3.072977	 0.763233
383	 13	 1	 0.000000	 2.825734	 2.457691	 0.655395
384	 13	 1	 0.000000	 3.027608	 2.750962	 -0.594901
385	 13	 1	 0.000000	 1.730470	 2.791111	 -0.518609
386	 13	 1	 0.000000	 2.398523	 3.590481	 0.259023
387	 13	 1	 0.000000	 2.257795	 3.778283	 -1.019619
388	 13	 1	 0.000000	 3.388618	 3.400984	 -1.538162
389	 13	 1	 0.000000	 2.989684	 2.909761	 -2.673746
390	 13	 1	 0.000000	 3.935868	 2.168965	 -2.177805
391	 14	 1	 0.000000	 -4.431554	 5.961545	 1.236484
392	 14	 1	 0.000000	 -4.339145	 4.783142	 0.695348
393	 14	 2	 0.000000	 -3.951588	 4.262138	 -0.430865
394	 14	 1	 0.000000	 -5.208883	 4.291435	 -0.101696
395	 14	 2	 0.000000	 -5.684460	 5.302462	 -0.766263
396	 14	 2	 0.000000	 -5.475186	 5.979103	 -1.856383
397	 14	 1	 0.000000	 6.068347	 5.913982	 -1.826720
398	 14	 1	 0.000000	 5.625811	 -5.708493	 -1.916098
399	 14	 1	 0.000000	 5.870332	 -4.675099	 -1.166227
400	 14	 2	 0.000000	 -6.090231	 -4.565395	 -0.216592
401	 14	 1	 0.000000	 5.871754	 -4.451852	 0.733909
402	 14	 1	 0.000000	 5.731077	 -3.159623	 0.752699
403	 14	 1	 0.000000	 5.141244	 -3.789305	 -0.219719
404	 14	 1	 0.000000	 3.904446	 -3.998218	 -0.561316
405	 14	 1	 0.000000	 3.662922	 -2.974121	 -1.324789
406	 14	 1	 0.000000	 3.068761	 -3.246788	 -0.201124
407	 14	 1	 0.000000	 2.347587	 -3.304354	 -1.281214
408	 14	 1	 0.000000	 1.144425	 -3.383616	 -0.795294
409	 14	 1	 0.000000	 -0.099453	 -3.501262	 -0.436231
410	 14	 1	 0.000000	 0.258861	 -4.185796	 0.609246
411	 14	 2	 0.000000	 1.101084	 -3.268595	 0.982611
412	 14	 1	 0.000000	 1.519425	 -2.191099	 1.577584
413	 14	 1	 0.000000	 1.144856	 -0.955219	 1.428249
414	 14	 2	 0.000000	 1.969868	 0.021137	 1.191426
415	 14	 1	 0.000000	 3.027794	 -0.389173	 1.825806
416	 14	 1	 0.000000	 3.042194	 0.066528	 0.608378
417	 14	 1	 0.000000	 3.749077	 -0.879111	 1.152514
418	 14	 1	 0.000000	 5.003146	 -0.907022	 1.493880
419	 14	 1	 0.000000	 4.795364	 -0.184233	 2.554259
420	 14	 1	 0.000000	 3.845431	 0.461690	 3.162873
421	 15	 1	 0.000000	 -0.996883	 6.143393	 -5.290126
422	 15	 1	 0.000000	 -1.242465	 -6.146293	 -4.138987
423	 15	 1	 0.000000	 -1.437296	 6.380001	 -2.892934
424	 15	 1	 0.000000	 -1.446332	 5.538054	 -1.902458
425	 15	 1	 0.000000	 -1.323379	 5.121965	 -3.127918
426	 15	 1	 0.000000	 -0.963612	 5.016842	 -4.372714
427	 15	 1	 0.000000	 -0.366678	 4.478809	 -5.394570
428	 15	 1	 0.000000	 -0.125531	 3.952437	 6.283042
429	 15	 1	 0.000000	 0.962900	 3.423926	 -6.083132
430	 15	 2	 0.000000	 0.712199	 2.167641	 -5.862009
431	 15	 1	 0.000000	 0.195966	 1.634095	 5.912393
432	 15	 1	 0.000000	 0.006985	 2.909166	 6.081150
433	 15	 1	 0.000000	 -0.563792	 2.791811	 4.919066
434	 15	 1	 0.000000	 0.110033	 1.741605	 4.554338
435	 15	 1	 0.000000	 -0.625875	 0.671769	 4.491973
436	 15	 2	 0.000000	 -1.080198	 -0.480778	 4.097985
437	 15	 1	 0.000000	 -0.853288	 -0.105295	 2.874252
438	 15	 2	 0.000000	 -0.580139	 -1.328860	 3.218169
439	 15	 1	 0.000000	 -0.654246	 -2.618727	 3.074122
440	 15	 1	 0.000000	 -1.747147	 -1.939207	 2.890220
441	 15	 1	 0.000000	 -1.336577	 -2.833820	 2.041043
442	 15	 1	 0.000000	 -1.687236	 -4.065913	 1.819719
443	 15	 1	 0.000000	 -1.927701	 -4.215059	 0.550888
444	 15	 2	 0.000000	 -2.742054	 -3.429659	 -0.089405
445	 15	 1	 0.000000	 -2.486589	 -2.384382	 -0.818880
446	 15	 2	 0.000000	 -3.759316	 -2.644305	 -0.869925
447	 15	 2	 0.000000	 -4.781684	 -1.983541	 -1.326166
448	 15	 1	 0.000000	 -5.730949	 -2.627035	 -0.713949
449	 15	 1	 0.000000	 -4.829396	 -2.522513	 0.216792
450	 15	 1	 0.000000	 -4.771259	 -2.210385	 1.477425
451	 16	 1	 0.000000	 -3.513362	 4.939227	 0.783808
452	 16	 1	 0.000000	 -2.740017	 5.897478	 0.367044
453	 16	 1	 0.000000	 -1.563336	 6.261999	 -0.048345
454	 16	 2	 0.000000	 -2.155475	 -5.727492	 0.734819
455	 16	 1	 0.000000	 -1.234612	 -5.293386	 -0.073614
456	 16	 1	 0.000000	 -2.429832	 -4.811624	 -0.244950
457	 16	 1	 0.000000	 -2.581813	 -6.049372	 -0.612215
458	 16	 1	 0.000000	 -3.501129	 -5.252157	 -1.069716
459	 16	 1	 0.000000	 -3.570824	 6.334579	 -1.402212
460	 16	 1	 0.000000	 -2.618670	 5.531876	 -1.775133
461	 16	 2	 0.000000	 -3.795284	 5.063754	 -2.069143
462	 16	 1	 0.000000	 -4.887749	 5.445523	 -2.661404
463	 16	 1	 0.000000	 -4.081942	 5.738588	 -3.638536
464	 16	 1	 0.000000	 -4.202298	 5.522164	 -4.914732
465	 16	 1	 0.000000	 -3.876117	 4.269915	 -4.790315
466	 16	 1	 0.000000	 -3.105657	 3.265742	 -5.087009
467	 16	 1	 0.000000	 -4.216870	 3.402901	 -5.747610
468	 16	 1	 0.000000	 -5.141268	 4.103626	 -5.160692
469	 16	 1	 0.000000	 -6.355797	 3.817933	 -4.795591
470	 16	 2	 0.000000	 -6.391851	 2.684043	 -5.430409
471	 16	 1	 0.000000	 -6.192593	 3.693190	 -6.225342
472	 16	 2	 0.000000	 -5.830332	 4.553825	 5.711745
473	 16	 2	 0.000000	 -5.859899	 4.892960	 -5.875181
474	 16	 1	 0.000000	 -5.061219	 5.914281	 -5.780233
475	 16	 1	 0.000000	 -5.490792	 5.894457	 -4.553418
476	 16	 1	 0.000000	 -4.703646	 -5.944292	 -4.807911
477	 16	 2	 0.000000	 -3.908691	 -5.970128	 -5.836200
478	 16	 1	 0.000000	 -3.137218	 -6.328115	 -4.853004
479	 16	 1	 0.000000	 -1.881248	 6.259512	 -4.633785
480	 16	 1	 0.000000	 -0.663596	 5.821371	 -4.509871
481	 17	 1	 0.000000	 -1.954243	 1.558914	 -2.334947
482	 17	 1	 0.000000	 -1.489469	 1.750148	 -3.533869
483	 17	 1	 0.000000	 -0.278373	 2.151177	 -3.783712
484	 17	 1	 0.000000	 -0.738944	 1.593159	 -4.863755
485	 17	 1	 0.000000	 -0.641716	 0.336041	 -5.180300
486	 17	 1	 0.000000	 0.393058	 -0.450823	 -5.170921
487	 17	 1	 0.000000	 0.123814	 0.141610	 -6.296323
488	 17	 1	 0.000000	 0.631571	 0.375180	 5.371515
489	 17	 1	 0.000000	 1.501168	 -0.198769	 6.148936
490	 17	 2	 0.000000	 2.553790	 0.047155	 5.426781
491	 17	 1	 0.000000	 3.027179	 -0.562835	 -6.368925
492	 17	 2	 0.000000	 3.490717	 -0.428146	 -5.161866
493	 17	 1	 0.000000	 4.611003	 -0.623106	 -5.791905
494	 17	 1	 0.000000	 4.652380	 0.628907	 -5.444411
495	 17	 1	 0.000000	 3.886924	 -0.014326	 -6.275271
496	 17	 1	 0.000000	 4.960427	 0.657352	 6.272284
497	 17	 1	 0.000000	 5.591564	 0.040250	 -5.614894
498	 17	 2	 0.000000	 5.873085	 -0.117708	 -4.355610
499	 17	 1	 0.000000	 -6.022327	 0.180539	 -5.195758
500	 17	 1	 0.000000	 -6.137583	 0.418071	 -3.922850
501	 17	 1	 0.000000	 5.802216	 1.353402	 -3.967348
502	 17	 2	 0.000000	 -6.259433	 1.659076	 -4.961480
503	 17	 1	 0.000000	 -6.044120	 2.940720	 -4.993580
504	 17	 2	 0.000000	 -6.021625	 4.194089	 -4.649257
505	 17	 1	 0.000000	 6.331340	 4.329747	 -3.452231
506	 17	 1	 0.000000	 5.480985	 4.477252	 -4.424413
507	 17	 1	 0.000000	 4.884683	 3.907900	 -5.429531
508	 17	 2	 0.000000	 4.708809	 5.045194	 -4.824859
509	 17	 1	 0.000000	 4.285318	 4.940612	 -3.600229
510	 17	 1	 0.000000	 4.812210	 3.852949	 -3.121300
511	 18	 1	 0.000000	 -0.062620	 3.954561	 -3.214121
512	 18	 1	 0.000000	 0.547219	 4.504747	 -2.206454
513	 18	 1	 0.000000	 1.561748	 4.220427	 -1.444947
514	 18	 1	 0.000000	 2.481034	 4.960579	 -0.899889
515	 18	 1	 0.000000	 1.487288	 4.609085	 -0.139019
516	 18	 1	 0.000000	 2.561230	 4.916586	 0.525881
517	 18	 1	 0.000000	 3.798880	 4.525649	 0.452463
518	 18	 1	 0.000000	 4.944718	 4.045079	 0.834703
519	 18	 1	 0.000000	 4.175192	 3.663982	 1.810712
520	 18	 1	 0.000000	 2.939945	 4.063387	 1.742603
521	 18	 1	 0.000000	 1.982478	 4.118467	 0.864979
522	 18	 2	 0.000000	 1.568935	 5.318465	 0.583932
523	 18	 2	 0.000000	 1.097993	 -6.385050	 0.167925
524	 18	 1	 0.000000	 2.331987	 6.054405	 0.093299
525	 18	 2	 0.000000	 2.794049	 -6.201213	 1.157802
526	 18	 1	 0.000000	 3.795056	 -5.598500	 1.727647
527	 18	 1	 0.000000	 3.352696	 -4.498851	 2.261586
528	 18	 2	 0.000000	 3.910786	 -4.452629	 3.434786
529	 18	 2	 0.000000	 4.299436	 -4.829646	 2.252919
530	 18	 2	 0.000000	 5.265378	 -5.247471	 1.489782
531	 18	 1	 0.000000	 4.347413	 -5.203333	 0.570330
532	 18	 1	 0.000000	 4.823918	 -6.294706	 1.091720
533	 18	 1	 0.000000	 4.305225	 5.685765	 0.267414
534	 18	 1	 0.000000	 4.296901	 4.981594	 -0.825323
535	 18	 1	 0.000000	 4.488470	 3.845763	 -0.222670
536	 18	 1	 0.000000	 3.619171	 3.109972	 -0.849513
537	 18	 1	 0.000000	 3.543762	 1.918191	 -1.363293
538	 18	 1	 0.000000	 3.967142	 1.378807	 -2.467746
539	 18	 1	 0.000000	 4.078866	 0.143609	 -2.857365
540	 18	 1	 0.000000	 3.236060	 -0.786091	 -2.517753
541	 19	 1	 0.000000	 1.829360	 -3.376865	 -2.306027
542	 19	 1	 0.000000	 1.387693	 -2.286771	 -2.859766
543	 19	 1	 0.000000	 0.729982	 -3.168676	 -2.167189
544	 19	 1	 0.000000	 0.725709	 -4.468536	 -2.185754
545	 19	 1	 0.000000	 1.020542	 -4.880108	 -0.988389
546	 19	 1	 0.000000	 2.134170	 -4.228197	 -1.146016
547	 19	 1	 0.000000	 3.304549	 -3.729511	 -0.878575
548	 19	 1	 0.000000	 3.589875	 -4.728706	 -0.097423
549	 19	 1	 0.000000	 2.406891	 -5.035421	 -0.540677
550	 19	 2	 0.000000	 1.900961	 -6.147533	 -0.984796
551	 19	 1	 0.000000	 1.865563	 -5.763746	 -2.226349
552	 19	 1	 0.000000	 2.872521	 -6.396582	 -1.701415
553	 19	 1	 0.000000	 2.802444	 -5.104307	 -1.578466
554	 19	 1	 0.000000	 3.690449	 -4.208503	 -1.893078
555	 19	 1	 0.000000	 4.578054	 -4.730299	 -1.099424
556	 19	 1	 0.000000	 3.947252	 -5.832675	 -0.822196
557	 19	 2	 0.000000	 2.772607	 -6.258427	 -0.463107
558	 19	 2	 0.000000	 2.059380	 -6.111435	 0.613787
559	 19	 1	 0.000000	 2.147288	 -5.482641	 1.748200
560	 19	 2	 0.000000	 1.865292	 -4.363574	 2.346671
561	 19	 1	 0.000000	 0.858481	 -5.086287	 1.954220
562	 19	 1	 0.000000	 0.969836	 -4.917954	 3.238457
563	 19	 1	 0.000000	 -0.047148	 -4.125505	 3.071817
564	 19	 1	 0.000000	 -1.078729	 -4.906039	 2.942949
565	 19	 2	 0.000000	 -1.407672	 -5.517236	 1.843752
566	 19	 1	 0.000000	 -0.166150	 -5.893769	 1.761010
567	 19	 1	 0.000000	 -0.132185	 -4.669453	 1.325237
568	 19	 1	 0.000000	 -1.098730	 -4.949411	 0.502186
569	 19	 2	 0.000000	 -0.035171	 -5.130652	 -0.223068
570	 19	 1	 0.000000	 0.836537	 -6.028875	 -0.574240
571	 20	 1	 0.000000	 2.738781	 -2.186432	 -2.242180
572	 20	 1	 0.000000	 2.521697	 -0.908881	 -2.138565